<?xml version="1.0" encoding="UTF-8"?>

<!-- generated on Tue Jan 26 10:25:48 2021 by Eclipse SUMO GUI Version 1.5.0
<configuration xmlns:xsi="http://www.w3.org/2001/XMLSchema-instance" xsi:noNamespaceSchemaLocation="http://sumo.dlr.de/xsd/sumoConfiguration.xsd">

    <input>
        <net-file value="/Users/MariiMar/Documents/Padova%20Smart%20City/PadovaSmartVehicles/padova.net.xml"/>
        <route-files value="/Users/MariiMar/Documents/Padova%20Smart%20City/PadovaSmartVehicles/padovaRoute.rou.xml"/>
    </input>

    <output>
        <emission-output value="/Users/MariiMar/Documents/Padova%20Smart%20City/PadovaSmartVehicles/pvEmissions.xml"/>
        <tripinfo-output value="/Users/MariiMar/Documents/Padova%20Smart%20City/PadovaSmartVehicles/pvInfo.xml"/>
    </output>

    <time>
        <begin value="0"/>
        <end value="500"/>
    </time>

</configuration>
-->

<emission-export xmlns:xsi="http://www.w3.org/2001/XMLSchema-instance" xsi:noNamespaceSchemaLocation="http://sumo.dlr.de/xsd/emission_file.xsd">
    <timestep time="0.00">
        <vehicle id="0" eclass="HBEFA3/PC_G_EU4" CO2="2624.72" CO="164.78" HC="0.81" NOx="1.20" PMx="0.07" fuel="1.13" electricity="0.00" noise="55.94" route="!0" type="DEFAULT_VEHTYPE" waiting="0.00" lane="64115339_0" pos="5.10" speed="0.00" angle="80.47" x="280.99" y="541.73"/>
    </timestep>
    <timestep time="1.00">
        <vehicle id="0" eclass="HBEFA3/PC_G_EU4" CO2="2920.66" CO="148.29" HC="0.74" NOx="1.31" PMx="0.07" fuel="1.26" electricity="0.00" noise="62.25" route="!0" type="DEFAULT_VEHTYPE" waiting="0.00" lane="64115339_0" pos="6.42" speed="1.32" angle="80.47" x="282.29" y="541.95"/>
    </timestep>
    <timestep time="2.00">
        <vehicle id="0" eclass="HBEFA3/PC_G_EU4" CO2="4732.49" CO="146.76" HC="0.78" NOx="2.09" PMx="0.10" fuel="2.03" electricity="0.00" noise="68.44" route="!0" type="DEFAULT_VEHTYPE" waiting="0.00" lane="64115339_0" pos="10.24" speed="3.82" angle="80.47" x="286.06" y="542.58"/>
        <vehicle id="2" eclass="HBEFA3/PC_G_EU4" CO2="2624.72" CO="164.78" HC="0.81" NOx="1.20" PMx="0.07" fuel="1.13" electricity="0.00" noise="55.94" route="!2" type="DEFAULT_VEHTYPE" waiting="0.00" lane="27198540#0_0" pos="5.10" speed="0.00" angle="326.29" x="628.58" y="4.21"/>
    </timestep>
    <timestep time="3.00">
        <vehicle id="0" eclass="HBEFA3/PC_G_EU4" CO2="5722.09" CO="136.45" HC="0.76" NOx="2.50" PMx="0.12" fuel="2.46" electricity="0.00" noise="68.40" route="!0" type="DEFAULT_VEHTYPE" waiting="0.00" lane="64115339_0" pos="16.32" speed="6.09" angle="80.47" x="292.06" y="543.59"/>
        <vehicle id="2" eclass="HBEFA3/PC_G_EU4" CO2="2969.16" CO="147.95" HC="0.74" NOx="1.33" PMx="0.07" fuel="1.28" electricity="0.00" noise="62.63" route="!2" type="DEFAULT_VEHTYPE" waiting="0.00" lane="27198540#0_0" pos="6.50" speed="1.40" angle="321.69" x="627.58" y="5.19"/>
        <vehicle id="3" eclass="HBEFA3/PC_G_EU4" CO2="2624.72" CO="164.78" HC="0.81" NOx="1.20" PMx="0.07" fuel="1.13" electricity="0.00" noise="55.94" route="!3" type="DEFAULT_VEHTYPE" waiting="0.00" lane="30601315#0_0" pos="5.10" speed="0.00" angle="91.73" x="674.95" y="668.67"/>
    </timestep>
    <timestep time="4.00">
        <vehicle id="0" eclass="HBEFA3/PC_G_EU4" CO2="5765.57" CO="116.14" HC="0.67" NOx="2.47" PMx="0.11" fuel="2.48" electricity="0.00" noise="67.20" route="!0" type="DEFAULT_VEHTYPE" waiting="0.00" lane="64115355_0" pos="2.11" speed="7.88" angle="79.00" x="299.71" y="545.00"/>
        <vehicle id="2" eclass="HBEFA3/PC_G_EU4" CO2="4106.72" CO="139.36" HC="0.73" NOx="1.81" PMx="0.09" fuel="1.77" electricity="0.00" noise="66.29" route="!2" type="DEFAULT_VEHTYPE" waiting="0.00" lane="27198540#0_0" pos="9.94" speed="3.44" angle="315.16" x="625.17" y="7.64"/>
        <vehicle id="3" eclass="HBEFA3/PC_G_EU4" CO2="4079.14" CO="151.88" HC="0.79" NOx="1.82" PMx="0.09" fuel="1.75" electricity="0.00" noise="68.29" route="!3" type="DEFAULT_VEHTYPE" waiting="0.00" lane="30601315#0_0" pos="7.68" speed="2.58" angle="90.33" x="677.54" y="668.66"/>
        <vehicle id="4" eclass="HBEFA3/PC_G_EU4" CO2="2624.72" CO="164.78" HC="0.81" NOx="1.20" PMx="0.07" fuel="1.13" electricity="0.00" noise="55.94" route="!4" type="DEFAULT_VEHTYPE" waiting="0.00" lane="27198524_0" pos="5.10" speed="0.00" angle="337.91" x="1217.10" y="179.18"/>
    </timestep>
    <timestep time="5.00">
        <vehicle id="0" eclass="HBEFA3/PC_G_EU4" CO2="0.00" CO="0.00" HC="0.00" NOx="0.00" PMx="0.00" fuel="0.00" electricity="0.00" noise="55.39" route="!0" type="DEFAULT_VEHTYPE" waiting="0.00" lane="64115355_0" pos="8.72" speed="6.61" angle="77.06" x="306.15" y="546.48"/>
        <vehicle id="2" eclass="HBEFA3/PC_G_EU4" CO2="4343.84" CO="121.08" HC="0.65" NOx="1.88" PMx="0.09" fuel="1.87" electricity="0.00" noise="65.25" route="!2" type="DEFAULT_VEHTYPE" waiting="0.00" lane="27198540#0_0" pos="15.03" speed="5.09" angle="344.74" x="623.85" y="12.41"/>
        <vehicle id="3" eclass="HBEFA3/PC_G_EU4" CO2="5537.29" CO="145.31" HC="0.79" NOx="2.44" PMx="0.12" fuel="2.38" electricity="0.00" noise="69.12" route="!3" type="DEFAULT_VEHTYPE" waiting="0.00" lane="30601315#0_0" pos="12.79" speed="5.11" angle="90.33" x="682.65" y="668.63"/>
        <vehicle id="4" eclass="HBEFA3/PC_G_EU4" CO2="3432.54" CO="147.84" HC="0.75" NOx="1.53" PMx="0.08" fuel="1.48" electricity="0.00" noise="65.47" route="!4" type="DEFAULT_VEHTYPE" waiting="0.00" lane="27198524_0" pos="7.09" speed="1.99" angle="337.91" x="1216.35" y="181.02"/>
        <vehicle id="5" eclass="HBEFA3/PC_G_EU4" CO2="2624.72" CO="164.78" HC="0.81" NOx="1.20" PMx="0.07" fuel="1.13" electricity="0.00" noise="55.94" route="!5" type="DEFAULT_VEHTYPE" waiting="0.00" lane="-30267630_0" pos="5.10" speed="0.00" angle="252.82" x="853.03" y="364.97"/>
    </timestep>
    <timestep time="6.00">
        <vehicle id="0" eclass="HBEFA3/PC_G_EU4" CO2="0.00" CO="0.00" HC="0.00" NOx="0.00" PMx="0.00" fuel="0.00" electricity="0.00" noise="45.18" route="!0" type="DEFAULT_VEHTYPE" waiting="0.00" lane="64115355_0" pos="11.84" speed="3.12" angle="77.06" x="309.19" y="547.18"/>
        <vehicle id="2" eclass="HBEFA3/PC_G_EU4" CO2="6147.05" CO="131.30" HC="0.74" NOx="2.67" PMx="0.13" fuel="2.64" electricity="0.00" noise="68.41" route="!2" type="DEFAULT_VEHTYPE" waiting="0.00" lane="27198540#0_0" pos="22.26" speed="7.23" angle="2.26" x="624.14" y="19.63"/>
        <vehicle id="3" eclass="HBEFA3/PC_G_EU4" CO2="7085.90" CO="146.15" HC="0.83" NOx="3.10" PMx="0.15" fuel="3.05" electricity="0.00" noise="70.16" route="!3" type="DEFAULT_VEHTYPE" waiting="0.00" lane="30601315#0_0" pos="20.42" speed="7.62" angle="100.77" x="690.18" y="667.68"/>
        <vehicle id="4" eclass="HBEFA3/PC_G_EU4" CO2="4094.10" CO="133.29" HC="0.70" NOx="1.79" PMx="0.09" fuel="1.76" electricity="0.00" noise="65.61" route="!4" type="DEFAULT_VEHTYPE" waiting="0.00" lane="27198524_0" pos="10.93" speed="3.84" angle="337.46" x="1214.87" y="184.57"/>
        <vehicle id="5" eclass="HBEFA3/PC_G_EU4" CO2="4039.82" CO="151.56" HC="0.79" NOx="1.80" PMx="0.09" fuel="1.74" electricity="0.00" noise="68.14" route="!5" type="DEFAULT_VEHTYPE" waiting="0.00" lane="-30267630_0" pos="7.65" speed="2.55" angle="252.82" x="850.59" y="364.22"/>
        <vehicle id="6" eclass="HBEFA3/PC_G_EU4" CO2="2624.72" CO="164.78" HC="0.81" NOx="1.20" PMx="0.07" fuel="1.13" electricity="0.00" noise="55.94" route="!6" type="DEFAULT_VEHTYPE" waiting="0.00" lane="-30602359#1_0" pos="5.10" speed="0.00" angle="170.14" x="809.15" y="884.40"/>
    </timestep>
    <timestep time="7.00">
        <vehicle id="0" eclass="HBEFA3/PC_G_EU4" CO2="0.00" CO="0.00" HC="0.00" NOx="0.00" PMx="0.00" fuel="0.00" electricity="0.00" noise="44.93" route="!0" type="DEFAULT_VEHTYPE" waiting="0.00" lane="64115355_0" pos="12.39" speed="0.56" angle="77.06" x="309.73" y="547.31"/>
        <vehicle id="2" eclass="HBEFA3/PC_G_EU4" CO2="2812.19" CO="58.46" HC="0.33" NOx="1.09" PMx="0.04" fuel="1.21" electricity="0.00" noise="61.35" route="!2" type="DEFAULT_VEHTYPE" waiting="0.00" lane="27198540#0_0" pos="29.86" speed="7.60" angle="2.26" x="624.44" y="27.23"/>
        <vehicle id="3" eclass="HBEFA3/PC_G_EU4" CO2="3772.14" CO="69.47" HC="0.40" NOx="1.52" PMx="0.06" fuel="1.62" electricity="0.00" noise="63.36" route="!3" type="DEFAULT_VEHTYPE" waiting="0.00" lane="30601315#0_0" pos="28.81" speed="8.39" angle="101.39" x="698.41" y="666.02"/>
        <vehicle id="4" eclass="HBEFA3/PC_G_EU4" CO2="6361.74" CO="145.82" HC="0.82" NOx="2.79" PMx="0.13" fuel="2.73" electricity="0.00" noise="69.76" route="!4" type="DEFAULT_VEHTYPE" waiting="0.00" lane="27198524_0" pos="17.33" speed="6.39" angle="336.88" x="1212.36" y="190.44"/>
        <vehicle id="5" eclass="HBEFA3/PC_G_EU4" CO2="4925.09" CO="137.48" HC="0.74" NOx="2.16" PMx="0.10" fuel="2.12" electricity="0.00" noise="67.57" route="!5" type="DEFAULT_VEHTYPE" waiting="0.00" lane="-30267630_0" pos="12.41" speed="4.76" angle="252.82" x="846.04" y="362.81"/>
        <vehicle id="6" eclass="HBEFA3/PC_G_EU4" CO2="3969.80" CO="151.01" HC="0.78" NOx="1.77" PMx="0.09" fuel="1.71" electricity="0.00" noise="67.87" route="!6" type="DEFAULT_VEHTYPE" waiting="0.00" lane="-30602359#1_0" pos="7.59" speed="2.49" angle="170.14" x="809.58" y="881.95"/>
        <vehicle id="7" eclass="HBEFA3/PC_G_EU4" CO2="2624.72" CO="164.78" HC="0.81" NOx="1.20" PMx="0.07" fuel="1.13" electricity="0.00" noise="55.94" route="!7" type="DEFAULT_VEHTYPE" waiting="0.00" lane="760540697#0_0" pos="5.10" speed="0.00" angle="269.43" x="170.50" y="692.91"/>
    </timestep>
    <timestep time="8.00">
        <vehicle id="0" eclass="HBEFA3/PC_G_EU4" CO2="0.00" CO="0.00" HC="0.00" NOx="0.00" PMx="0.00" fuel="0.00" electricity="0.00" noise="53.88" route="!0" type="DEFAULT_VEHTYPE" waiting="1.00" lane="64115355_0" pos="12.48" speed="0.08" angle="77.06" x="309.81" y="547.32"/>
        <vehicle id="2" eclass="HBEFA3/PC_G_EU4" CO2="0.00" CO="0.00" HC="0.00" NOx="0.00" PMx="0.00" fuel="0.00" electricity="0.00" noise="57.36" route="!2" type="DEFAULT_VEHTYPE" waiting="0.00" lane="27198540#0_0" pos="36.79" speed="6.93" angle="2.54" x="624.74" y="34.15"/>
        <vehicle id="3" eclass="HBEFA3/PC_G_EU4" CO2="0.00" CO="0.00" HC="0.00" NOx="0.00" PMx="0.00" fuel="0.00" electricity="0.00" noise="59.28" route="!3" type="DEFAULT_VEHTYPE" waiting="0.00" lane="30601315#0_0" pos="36.86" speed="8.05" angle="101.39" x="706.30" y="664.43"/>
        <vehicle id="4" eclass="HBEFA3/PC_G_EU4" CO2="4972.20" CO="100.58" HC="0.57" NOx="2.10" PMx="0.09" fuel="2.14" electricity="0.00" noise="65.61" route="!4" type="DEFAULT_VEHTYPE" waiting="0.00" lane="27198524_0" pos="25.13" speed="7.81" angle="336.88" x="1209.30" y="197.62"/>
        <vehicle id="5" eclass="HBEFA3/PC_G_EU4" CO2="6614.44" CO="141.62" HC="0.80" NOx="2.89" PMx="0.14" fuel="2.84" electricity="0.00" noise="69.53" route="!5" type="DEFAULT_VEHTYPE" waiting="0.00" lane="-30267630_0" pos="19.58" speed="7.17" angle="252.82" x="839.19" y="360.69"/>
        <vehicle id="6" eclass="HBEFA3/PC_G_EU4" CO2="4324.03" CO="130.70" HC="0.70" NOx="1.89" PMx="0.09" fuel="1.86" electricity="0.00" noise="65.89" route="!6" type="DEFAULT_VEHTYPE" waiting="0.00" lane="-30602359#1_0" pos="11.95" speed="4.36" angle="170.14" x="810.33" y="877.66"/>
        <vehicle id="7" eclass="HBEFA3/PC_G_EU4" CO2="3847.49" CO="150.11" HC="0.77" NOx="1.72" PMx="0.09" fuel="1.65" electricity="0.00" noise="67.37" route="!7" type="DEFAULT_VEHTYPE" waiting="0.00" lane="760540697#0_0" pos="7.49" speed="2.39" angle="269.43" x="168.11" y="692.89"/>
        <vehicle id="8" eclass="HBEFA3/PC_G_EU4" CO2="2624.72" CO="164.78" HC="0.81" NOx="1.20" PMx="0.07" fuel="1.13" electricity="0.00" noise="55.94" route="!8" type="DEFAULT_VEHTYPE" waiting="0.00" lane="255422871#0_0" pos="5.10" speed="0.00" angle="127.87" x="1070.39" y="1196.83"/>
    </timestep>
    <timestep time="9.00">
        <vehicle id="0" eclass="HBEFA3/PC_G_EU4" CO2="0.00" CO="0.00" HC="0.00" NOx="0.00" PMx="0.00" fuel="0.00" electricity="0.00" noise="55.73" route="!0" type="DEFAULT_VEHTYPE" waiting="2.00" lane="64115355_0" pos="12.51" speed="0.03" angle="77.06" x="309.84" y="547.33"/>
        <vehicle id="2" eclass="HBEFA3/PC_G_EU4" CO2="0.00" CO="0.00" HC="0.00" NOx="0.00" PMx="0.00" fuel="0.00" electricity="0.00" noise="58.29" route="!2" type="DEFAULT_VEHTYPE" waiting="0.00" lane="27198540#0_0" pos="43.41" speed="6.62" angle="2.85" x="625.07" y="40.76"/>
        <vehicle id="3" eclass="HBEFA3/PC_G_EU4" CO2="0.00" CO="0.00" HC="0.00" NOx="0.00" PMx="0.00" fuel="0.00" electricity="0.00" noise="57.62" route="!3" type="DEFAULT_VEHTYPE" waiting="0.00" lane="30601315#0_0" pos="44.21" speed="7.35" angle="101.39" x="713.50" y="662.98"/>
        <vehicle id="4" eclass="HBEFA3/PC_G_EU4" CO2="2631.39" CO="49.54" HC="0.28" NOx="0.99" PMx="0.03" fuel="1.13" electricity="0.00" noise="61.27" route="!4" type="DEFAULT_VEHTYPE" waiting="0.00" lane="27198524_0" pos="33.20" speed="8.06" angle="336.88" x="1206.13" y="205.04"/>
        <vehicle id="5" eclass="HBEFA3/PC_G_EU4" CO2="4130.18" CO="79.61" HC="0.46" NOx="1.70" PMx="0.07" fuel="1.78" electricity="0.00" noise="63.96" route="!5" type="DEFAULT_VEHTYPE" waiting="0.00" lane="-30267630_0" pos="27.72" speed="8.14" angle="252.82" x="831.42" y="358.29"/>
        <vehicle id="6" eclass="HBEFA3/PC_G_EU4" CO2="6609.59" CO="145.09" HC="0.82" NOx="2.90" PMx="0.14" fuel="2.84" electricity="0.00" noise="69.83" route="!6" type="DEFAULT_VEHTYPE" waiting="0.00" lane="-30602359#1_0" pos="18.82" speed="6.87" angle="176.46" x="810.85" y="870.81"/>
        <vehicle id="7" eclass="HBEFA3/PC_G_EU4" CO2="3554.12" CO="123.79" HC="0.65" NOx="1.54" PMx="0.07" fuel="1.53" electricity="0.00" noise="63.35" route="!7" type="DEFAULT_VEHTYPE" waiting="0.00" lane="760540697#0_0" pos="11.22" speed="3.73" angle="269.43" x="164.38" y="692.85"/>
        <vehicle id="8" eclass="HBEFA3/PC_G_EU4" CO2="3427.30" CO="147.82" HC="0.75" NOx="1.53" PMx="0.08" fuel="1.47" electricity="0.00" noise="65.45" route="!8" type="DEFAULT_VEHTYPE" waiting="0.00" lane="255422871#0_0" pos="7.09" speed="1.99" angle="126.50" x="1071.99" y="1195.65"/>
        <vehicle id="9" eclass="HBEFA3/PC_G_EU4" CO2="2624.72" CO="164.78" HC="0.81" NOx="1.20" PMx="0.07" fuel="1.13" electricity="0.00" noise="55.94" route="!9" type="DEFAULT_VEHTYPE" waiting="0.00" lane="29994223#3_0" pos="5.10" speed="0.00" angle="126.50" x="357.38" y="1021.92"/>
    </timestep>
    <timestep time="10.00">
        <vehicle id="0" eclass="HBEFA3/PC_G_EU4" CO2="0.00" CO="0.00" HC="0.00" NOx="0.00" PMx="0.00" fuel="0.00" electricity="0.00" noise="55.88" route="!0" type="DEFAULT_VEHTYPE" waiting="3.00" lane="64115355_0" pos="12.52" speed="0.02" angle="77.06" x="309.86" y="547.33"/>
        <vehicle id="10" eclass="HBEFA3/PC_G_EU4" CO2="2624.72" CO="164.78" HC="0.81" NOx="1.20" PMx="0.07" fuel="1.13" electricity="0.00" noise="55.94" route="!10" type="DEFAULT_VEHTYPE" waiting="0.00" lane="-30016481#0_0" pos="5.10" speed="0.00" angle="103.23" x="874.50" y="691.69"/>
        <vehicle id="2" eclass="HBEFA3/PC_G_EU4" CO2="4315.07" CO="87.96" HC="0.50" NOx="1.79" PMx="0.08" fuel="1.85" electricity="0.00" noise="64.30" route="!2" type="DEFAULT_VEHTYPE" waiting="0.00" lane="27198540#0_0" pos="51.13" speed="7.73" angle="2.85" x="625.45" y="48.48"/>
        <vehicle id="3" eclass="HBEFA3/PC_G_EU4" CO2="2346.67" CO="50.23" HC="0.28" NOx="0.87" PMx="0.03" fuel="1.01" electricity="0.00" noise="60.43" route="!3" type="DEFAULT_VEHTYPE" waiting="0.00" lane="30601315#0_0" pos="51.69" speed="7.48" angle="101.39" x="720.84" y="661.50"/>
        <vehicle id="4" eclass="HBEFA3/PC_G_EU4" CO2="3274.10" CO="57.10" HC="0.33" NOx="1.28" PMx="0.05" fuel="1.41" electricity="0.00" noise="62.58" route="!4" type="DEFAULT_VEHTYPE" waiting="0.00" lane="27198524_0" pos="41.79" speed="8.59" angle="336.86" x="1202.75" y="212.94"/>
        <vehicle id="5" eclass="HBEFA3/PC_G_EU4" CO2="0.00" CO="0.00" HC="0.00" NOx="0.00" PMx="0.00" fuel="0.00" electricity="0.00" noise="59.50" route="!5" type="DEFAULT_VEHTYPE" waiting="0.00" lane="-30267630_0" pos="35.62" speed="7.90" angle="254.84" x="823.81" y="356.14"/>
        <vehicle id="6" eclass="HBEFA3/PC_G_EU4" CO2="0.00" CO="0.00" HC="0.00" NOx="0.00" PMx="0.00" fuel="0.00" electricity="0.00" noise="58.13" route="!6" type="DEFAULT_VEHTYPE" waiting="0.00" lane="-30602359#1_0" pos="25.36" speed="6.54" angle="176.46" x="811.25" y="864.29"/>
        <vehicle id="7" eclass="HBEFA3/PC_G_EU4" CO2="4717.93" CO="123.07" HC="0.67" NOx="2.04" PMx="0.09" fuel="2.03" electricity="0.00" noise="66.07" route="!7" type="DEFAULT_VEHTYPE" waiting="0.00" lane="760540697#0_0" pos="16.74" speed="5.52" angle="269.43" x="158.86" y="692.79"/>
        <vehicle id="8" eclass="HBEFA3/PC_G_EU4" CO2="3623.24" CO="128.87" HC="0.67" NOx="1.58" PMx="0.07" fuel="1.56" electricity="0.00" noise="63.90" route="!8" type="DEFAULT_VEHTYPE" waiting="0.00" lane="255422871#0_0" pos="10.57" speed="3.48" angle="128.25" x="1074.69" y="1193.46"/>
        <vehicle id="9" eclass="HBEFA3/PC_G_EU4" CO2="3619.69" CO="148.69" HC="0.76" NOx="1.61" PMx="0.08" fuel="1.56" electricity="0.00" noise="66.38" route="!9" type="DEFAULT_VEHTYPE" waiting="0.00" lane="29994223#3_0" pos="7.28" speed="2.18" angle="126.50" x="359.13" y="1020.62"/>
    </timestep>
    <timestep time="11.00">
        <vehicle id="0" eclass="HBEFA3/PC_G_EU4" CO2="0.00" CO="0.00" HC="0.00" NOx="0.00" PMx="0.00" fuel="0.00" electricity="0.00" noise="55.88" route="!0" type="DEFAULT_VEHTYPE" waiting="4.00" lane="64115355_0" pos="12.53" speed="0.00" angle="77.06" x="309.86" y="547.34"/>
        <vehicle id="10" eclass="HBEFA3/PC_G_EU4" CO2="3201.94" CO="147.37" HC="0.75" NOx="1.43" PMx="0.07" fuel="1.38" electricity="0.00" noise="64.20" route="!10" type="DEFAULT_VEHTYPE" waiting="0.00" lane="-30016481#0_0" pos="6.83" speed="1.73" angle="103.23" x="876.18" y="691.30"/>
        <vehicle id="2" eclass="HBEFA3/PC_G_EU4" CO2="2137.83" CO="42.88" HC="0.24" NOx="0.77" PMx="0.02" fuel="0.92" electricity="0.00" noise="60.24" route="!2" type="DEFAULT_VEHTYPE" waiting="0.00" lane="27198540#0_0" pos="58.88" speed="7.75" angle="2.85" x="625.83" y="56.22"/>
        <vehicle id="3" eclass="HBEFA3/PC_G_EU4" CO2="0.00" CO="0.00" HC="0.00" NOx="0.00" PMx="0.00" fuel="0.00" electricity="0.00" noise="59.63" route="!3" type="DEFAULT_VEHTYPE" waiting="0.00" lane="30601315#0_0" pos="59.09" speed="7.40" angle="101.41" x="728.09" y="660.04"/>
        <vehicle id="4" eclass="HBEFA3/PC_G_EU4" CO2="0.00" CO="0.00" HC="0.00" NOx="0.00" PMx="0.00" fuel="0.00" electricity="0.00" noise="60.75" route="!4" type="DEFAULT_VEHTYPE" waiting="0.00" lane="27198524_0" pos="50.38" speed="8.59" angle="336.50" x="1199.33" y="220.82"/>
        <vehicle id="5" eclass="HBEFA3/PC_G_EU4" CO2="0.00" CO="0.00" HC="0.00" NOx="0.00" PMx="0.00" fuel="0.00" electricity="0.00" noise="59.81" route="!5" type="DEFAULT_VEHTYPE" waiting="0.00" lane="-30267630_0" pos="43.41" speed="7.79" angle="300.36" x="817.23" y="357.69"/>
        <vehicle id="6" eclass="HBEFA3/PC_G_EU4" CO2="2497.53" CO="61.79" HC="0.34" NOx="0.96" PMx="0.03" fuel="1.07" electricity="0.00" noise="60.30" route="!6" type="DEFAULT_VEHTYPE" waiting="0.00" lane="-30602359#1_0" pos="32.11" speed="6.76" angle="176.46" x="811.67" y="857.54"/>
        <vehicle id="7" eclass="HBEFA3/PC_G_EU4" CO2="6247.60" CO="129.03" HC="0.74" NOx="2.71" PMx="0.13" fuel="2.69" electricity="0.00" noise="68.36" route="!7" type="DEFAULT_VEHTYPE" waiting="0.00" lane="760540697#0_0" pos="24.35" speed="7.61" angle="269.43" x="151.25" y="692.72"/>
        <vehicle id="8" eclass="HBEFA3/PC_G_EU4" CO2="5025.03" CO="129.74" HC="0.71" NOx="2.19" PMx="0.10" fuel="2.16" electricity="0.00" noise="67.02" route="!8" type="DEFAULT_VEHTYPE" waiting="0.00" lane="255422871#0_0" pos="16.06" speed="5.49" angle="135.39" x="1078.54" y="1189.55"/>
        <vehicle id="9" eclass="HBEFA3/PC_G_EU4" CO2="5133.05" CO="143.65" HC="0.78" NOx="2.26" PMx="0.11" fuel="2.21" electricity="0.00" noise="68.52" route="!9" type="DEFAULT_VEHTYPE" waiting="0.00" lane="29994223#3_0" pos="11.90" speed="4.62" angle="126.50" x="362.85" y="1017.87"/>
    </timestep>
    <timestep time="12.00">
        <vehicle id="0" eclass="HBEFA3/PC_G_EU4" CO2="0.00" CO="0.00" HC="0.00" NOx="0.00" PMx="0.00" fuel="0.00" electricity="0.00" noise="55.93" route="!0" type="DEFAULT_VEHTYPE" waiting="5.00" lane="64115355_0" pos="12.53" speed="0.00" angle="77.06" x="309.86" y="547.34"/>
        <vehicle id="10" eclass="HBEFA3/PC_G_EU4" CO2="3554.73" CO="131.16" HC="0.68" NOx="1.55" PMx="0.07" fuel="1.53" electricity="0.00" noise="63.84" route="!10" type="DEFAULT_VEHTYPE" waiting="0.00" lane=":330431986_6_0" pos="0.06" speed="3.23" angle="103.25" x="879.33" y="690.55"/>
        <vehicle id="2" eclass="HBEFA3/PC_G_EU4" CO2="0.00" CO="0.00" HC="0.00" NOx="0.00" PMx="0.00" fuel="0.00" electricity="0.00" noise="59.06" route="!2" type="DEFAULT_VEHTYPE" waiting="0.00" lane="27198540#0_0" pos="66.36" speed="7.48" angle="2.85" x="626.21" y="63.68"/>
        <vehicle id="3" eclass="HBEFA3/PC_G_EU4" CO2="3415.47" CO="66.05" HC="0.38" NOx="1.36" PMx="0.05" fuel="1.47" electricity="0.00" noise="62.63" route="!3" type="DEFAULT_VEHTYPE" waiting="0.00" lane="30601315#0_0" pos="67.12" speed="8.03" angle="102.45" x="735.93" y="658.31"/>
        <vehicle id="4" eclass="HBEFA3/PC_G_EU4" CO2="0.00" CO="0.00" HC="0.00" NOx="0.00" PMx="0.00" fuel="0.00" electricity="0.00" noise="59.85" route="!4" type="DEFAULT_VEHTYPE" waiting="0.00" lane="27198524_0" pos="58.74" speed="8.36" angle="336.50" x="1195.99" y="228.49"/>
        <vehicle id="5" eclass="HBEFA3/PC_G_EU4" CO2="0.00" CO="0.00" HC="0.00" NOx="0.00" PMx="0.00" fuel="0.00" electricity="0.00" noise="60.04" route="!5" type="DEFAULT_VEHTYPE" waiting="0.00" lane="-30267630_0" pos="51.17" speed="7.75" angle="342.93" x="814.95" y="365.10"/>
        <vehicle id="6" eclass="HBEFA3/PC_G_EU4" CO2="0.00" CO="0.00" HC="0.00" NOx="0.00" PMx="0.00" fuel="0.00" electricity="0.00" noise="58.66" route="!6" type="DEFAULT_VEHTYPE" waiting="0.00" lane="-30602359#1_0" pos="38.68" speed="6.57" angle="179.05" x="811.85" y="850.98"/>
        <vehicle id="7" eclass="HBEFA3/PC_G_EU4" CO2="5694.75" CO="101.48" HC="0.60" NOx="2.41" PMx="0.11" fuel="2.45" electricity="0.00" noise="66.68" route="!7" type="DEFAULT_VEHTYPE" waiting="0.00" lane="760540697#0_0" pos="33.47" speed="9.13" angle="269.43" x="142.13" y="692.63"/>
        <vehicle id="8" eclass="HBEFA3/PC_G_EU4" CO2="4796.86" CO="106.56" HC="0.60" NOx="2.04" PMx="0.09" fuel="2.06" electricity="0.00" noise="65.47" route="!8" type="DEFAULT_VEHTYPE" waiting="0.00" lane="255422871#0_0" pos="23.03" speed="6.97" angle="135.39" x="1083.44" y="1184.59"/>
        <vehicle id="9" eclass="HBEFA3/PC_G_EU4" CO2="5957.96" CO="132.57" HC="0.75" NOx="2.59" PMx="0.12" fuel="2.56" electricity="0.00" noise="68.32" route="!9" type="DEFAULT_VEHTYPE" waiting="0.00" lane="29994223#3_0" pos="18.70" speed="6.80" angle="126.50" x="368.31" y="1013.83"/>
    </timestep>
    <timestep time="13.00">
        <vehicle id="0" eclass="HBEFA3/PC_G_EU4" CO2="0.00" CO="0.00" HC="0.00" NOx="0.00" PMx="0.00" fuel="0.00" electricity="0.00" noise="55.94" route="!0" type="DEFAULT_VEHTYPE" waiting="6.00" lane="64115355_0" pos="12.53" speed="0.00" angle="77.06" x="309.86" y="547.34"/>
        <vehicle id="10" eclass="HBEFA3/PC_G_EU4" CO2="4513.17" CO="125.44" HC="0.68" NOx="1.96" PMx="0.09" fuel="1.94" electricity="0.00" noise="65.86" route="!10" type="DEFAULT_VEHTYPE" waiting="0.00" lane=":330431986_6_0" pos="5.08" speed="5.02" angle="104.63" x="884.19" y="689.29"/>
        <vehicle id="13" eclass="HBEFA3/PC_G_EU4" CO2="2624.72" CO="164.78" HC="0.81" NOx="1.20" PMx="0.07" fuel="1.13" electricity="0.00" noise="55.94" route="!13" type="DEFAULT_VEHTYPE" waiting="0.00" lane="-22885812#1_0" pos="5.10" speed="0.00" angle="267.33" x="740.89" y="976.56"/>
        <vehicle id="2" eclass="HBEFA3/PC_G_EU4" CO2="0.00" CO="0.00" HC="0.00" NOx="0.00" PMx="0.00" fuel="0.00" electricity="0.00" noise="59.96" route="!2" type="DEFAULT_VEHTYPE" waiting="0.00" lane="27198540#0_0" pos="73.84" speed="7.47" angle="2.85" x="626.58" y="71.15"/>
        <vehicle id="3" eclass="HBEFA3/PC_G_EU4" CO2="2536.37" CO="45.68" HC="0.26" NOx="0.94" PMx="0.03" fuel="1.09" electricity="0.00" noise="61.21" route="!3" type="DEFAULT_VEHTYPE" waiting="0.00" lane="30601315#0_0" pos="75.36" speed="8.24" angle="103.36" x="743.96" y="656.46"/>
        <vehicle id="4" eclass="HBEFA3/PC_G_EU4" CO2="2795.88" CO="46.46" HC="0.27" NOx="1.05" PMx="0.03" fuel="1.20" electricity="0.00" noise="61.86" route="!4" type="DEFAULT_VEHTYPE" waiting="0.00" lane="27198524_0" pos="67.41" speed="8.67" angle="336.50" x="1192.54" y="236.44"/>
        <vehicle id="5" eclass="HBEFA3/PC_G_EU4" CO2="0.00" CO="0.00" HC="0.00" NOx="0.00" PMx="0.00" fuel="0.00" electricity="0.00" noise="59.10" route="!5" type="DEFAULT_VEHTYPE" waiting="0.00" lane="-30267630_0" pos="58.66" speed="7.49" angle="339.08" x="812.51" y="372.08"/>
        <vehicle id="6" eclass="HBEFA3/PC_G_EU4" CO2="0.00" CO="0.00" HC="0.00" NOx="0.00" PMx="0.00" fuel="0.00" electricity="0.00" noise="56.71" route="!6" type="DEFAULT_VEHTYPE" waiting="0.00" lane="-30602359#1_0" pos="44.63" speed="5.95" angle="181.59" x="811.69" y="845.03"/>
        <vehicle id="7" eclass="HBEFA3/PC_G_EU4" CO2="9960.70" CO="166.35" HC="1.00" NOx="4.36" PMx="0.21" fuel="4.28" electricity="0.00" noise="72.24" route="!7" type="DEFAULT_VEHTYPE" waiting="0.00" lane="760540697#0_0" pos="45.16" speed="11.68" angle="269.43" x="130.45" y="692.51"/>
        <vehicle id="8" eclass="HBEFA3/PC_G_EU4" CO2="5145.68" CO="97.97" HC="0.57" NOx="2.17" PMx="0.10" fuel="2.21" electricity="0.00" noise="65.83" route="!8" type="DEFAULT_VEHTYPE" waiting="0.00" lane="255422871#0_0" pos="31.41" speed="8.37" angle="142.19" x="1088.85" y="1178.27"/>
        <vehicle id="9" eclass="HBEFA3/PC_G_EU4" CO2="5067.50" CO="98.31" HC="0.57" NOx="2.14" PMx="0.09" fuel="2.18" electricity="0.00" noise="65.72" route="!9" type="DEFAULT_VEHTYPE" waiting="0.00" lane="29994223#3_0" pos="26.89" speed="8.19" angle="126.50" x="374.90" y="1008.95"/>
    </timestep>
    <timestep time="14.00">
        <vehicle id="0" eclass="HBEFA3/PC_G_EU4" CO2="0.00" CO="0.00" HC="0.00" NOx="0.00" PMx="0.00" fuel="0.00" electricity="0.00" noise="55.94" route="!0" type="DEFAULT_VEHTYPE" waiting="7.00" lane="64115355_0" pos="12.53" speed="0.00" angle="77.06" x="309.86" y="547.34"/>
        <vehicle id="10" eclass="HBEFA3/PC_G_EU4" CO2="4639.18" CO="108.89" HC="0.60" NOx="1.98" PMx="0.09" fuel="1.99" electricity="0.00" noise="65.27" route="!10" type="DEFAULT_VEHTYPE" waiting="0.00" lane=":330431986_6_0" pos="11.59" speed="6.51" angle="104.63" x="890.48" y="687.64"/>
        <vehicle id="13" eclass="HBEFA3/PC_G_EU4" CO2="2995.77" CO="147.80" HC="0.74" NOx="1.34" PMx="0.07" fuel="1.29" electricity="0.00" noise="62.83" route="!13" type="DEFAULT_VEHTYPE" waiting="0.00" lane="-22885812#1_0" pos="6.54" speed="1.44" angle="267.33" x="739.45" y="976.49"/>
        <vehicle id="14" eclass="HBEFA3/PC_G_EU4" CO2="2624.72" CO="164.78" HC="0.81" NOx="1.20" PMx="0.07" fuel="1.13" electricity="0.00" noise="55.94" route="!14" type="DEFAULT_VEHTYPE" waiting="0.00" lane="30016995_0" pos="5.10" speed="0.00" angle="355.13" x="338.63" y="564.54"/>
        <vehicle id="2" eclass="HBEFA3/PC_G_EU4" CO2="0.00" CO="0.00" HC="0.00" NOx="0.00" PMx="0.00" fuel="0.00" electricity="0.00" noise="58.86" route="!2" type="DEFAULT_VEHTYPE" waiting="0.00" lane="27198540#0_0" pos="81.04" speed="7.21" angle="2.85" x="626.93" y="78.35"/>
        <vehicle id="3" eclass="HBEFA3/PC_G_EU4" CO2="0.00" CO="0.00" HC="0.00" NOx="0.00" PMx="0.00" fuel="0.00" electricity="0.00" noise="50.99" route="!3" type="DEFAULT_VEHTYPE" waiting="0.00" lane=":330193399_1_0" pos="2.28" speed="5.49" angle="99.89" x="749.35" y="655.48"/>
        <vehicle id="4" eclass="HBEFA3/PC_G_EU4" CO2="0.00" CO="0.00" HC="0.00" NOx="0.00" PMx="0.00" fuel="0.00" electricity="0.00" noise="58.82" route="!4" type="DEFAULT_VEHTYPE" waiting="0.00" lane="27198524_0" pos="75.56" speed="8.15" angle="336.50" x="1189.29" y="243.91"/>
        <vehicle id="5" eclass="HBEFA3/PC_G_EU4" CO2="3432.58" CO="65.34" HC="0.38" NOx="1.37" PMx="0.05" fuel="1.48" electricity="0.00" noise="62.69" route="!5" type="DEFAULT_VEHTYPE" waiting="0.00" lane="-30267630_0" pos="66.79" speed="8.13" angle="272.23" x="805.48" y="374.33"/>
        <vehicle id="6" eclass="HBEFA3/PC_G_EU4" CO2="3763.64" CO="86.45" HC="0.48" NOx="1.56" PMx="0.06" fuel="1.62" electricity="0.00" noise="63.12" route="!6" type="DEFAULT_VEHTYPE" waiting="0.00" lane="-30602359#1_0" pos="51.50" speed="6.88" angle="181.59" x="811.50" y="838.16"/>
        <vehicle id="7" eclass="HBEFA3/PC_G_EU4" CO2="6694.34" CO="89.46" HC="0.57" NOx="2.78" PMx="0.13" fuel="2.88" electricity="0.00" noise="67.97" route="!7" type="DEFAULT_VEHTYPE" waiting="0.00" lane="760540697#0_0" pos="58.14" speed="12.99" angle="269.43" x="117.46" y="692.38"/>
        <vehicle id="8" eclass="HBEFA3/PC_G_EU4" CO2="7069.06" CO="119.18" HC="0.71" NOx="3.03" PMx="0.14" fuel="3.04" electricity="0.00" noise="68.63" route="!8" type="DEFAULT_VEHTYPE" waiting="0.00" lane="255422871#0_0" pos="41.64" speed="10.23" angle="150.79" x="1093.84" y="1169.34"/>
        <vehicle id="9" eclass="HBEFA3/PC_G_EU4" CO2="5586.44" CO="94.71" HC="0.56" NOx="2.35" PMx="0.10" fuel="2.40" electricity="0.00" noise="66.44" route="!9" type="DEFAULT_VEHTYPE" waiting="0.00" lane="29994223#3_0" pos="36.48" speed="9.59" angle="126.50" x="382.60" y="1003.25"/>
    </timestep>
    <timestep time="15.00">
        <vehicle id="0" eclass="HBEFA3/PC_G_EU4" CO2="2624.72" CO="164.78" HC="0.81" NOx="1.20" PMx="0.07" fuel="1.13" electricity="0.00" noise="55.94" route="!0" type="DEFAULT_VEHTYPE" waiting="8.00" lane="64115355_0" pos="12.53" speed="0.00" angle="77.06" x="309.86" y="547.34"/>